species,bulk_modulus_fcc,c44_fcc,C11-C12,surface_energy_111_fcc,surface_energy_121_fcc,surface_energy_100_fcc,unstable_stack_energy_fcc,intr_stack_fault_energy_fcc,lattice_constant_fcc,relaxed_formation_potential_energy_fcc,vacancy_migration_energy_fcc,units
Ag,92.8612,41.2075,31.0503,0.709,0.814,0.791,0.1037,0.0171,4.1457,0.7209,0.6564,"{‘bulk_modulus_unit_fcc’:’GPa’, ‘elastic_const_unit_fcc’:’GPa’,’surface_energy_unit_fcc’:’J/m^2',’unstable_stack_energy_unit_fcc’:’J/m^2’,’intr_stack_fault_energy_unit_fcc’:’J/m^2’,'lattice_constant_fcc ‘:’angstrom','relaxed_formation_potential_energy_unit_fcc': 'eV','vacancy_migration_energy_unit_fcc': 'eV'}"
Al,76.0248,33.6604,53.4132,0.815,0.946,0.939,0.1671,0.1218,4.0378,0.6413,0.3347,"{‘bulk_modulus_unit_fcc’:’GPa’, ‘elastic_const_unit_fcc’:’GPa’,’surface_energy_unit_fcc’:’J/m^2',’unstable_stack_energy_unit_fcc’:’J/m^2’,’intr_stack_fault_energy_unit_fcc’:’J/m^2’,'lattice_constant_fcc ‘:’angstrom','relaxed_formation_potential_energy_unit_fcc': 'eV','vacancy_migration_energy_unit_fcc': 'eV'}"
Au,144.4053,26.5289,20.9309,0.696,0.805,0.868,0.0868,0.03,4.1539,0.2512,0.3986,"{‘bulk_modulus_unit_fcc’:’GPa’, ‘elastic_const_unit_fcc’:’GPa’,’surface_energy_unit_fcc’:’J/m^2',’unstable_stack_energy_unit_fcc’:’J/m^2’,’intr_stack_fault_energy_unit_fcc’:’J/m^2’,'lattice_constant_fcc ‘:’angstrom','relaxed_formation_potential_energy_unit_fcc': 'eV','vacancy_migration_energy_unit_fcc': 'eV'}"
Cu,133.9783,79.5973,53.4236,1.285,1.485,1.447,0.1779,0.0421,3.6239,0.8481,0.6623,"{‘bulk_modulus_unit_fcc’:’GPa’, ‘elastic_const_unit_fcc’:’GPa’,’surface_energy_unit_fcc’:’J/m^2',’unstable_stack_energy_unit_fcc’:’J/m^2’,’intr_stack_fault_energy_unit_fcc’:’J/m^2’,'lattice_constant_fcc ‘:’angstrom','relaxed_formation_potential_energy_unit_fcc': 'eV','vacancy_migration_energy_unit_fcc': 'eV'}"
Ni,206.584,117.5921,83.1221,1.827,2.256,2.24,0.286,0.1429,3.5036,1.2142,1.0189,"{‘bulk_modulus_unit_fcc’:’GPa’, ‘elastic_const_unit_fcc’:’GPa’,’surface_energy_unit_fcc’:’J/m^2',’unstable_stack_energy_unit_fcc’:’J/m^2’,’intr_stack_fault_energy_unit_fcc’:’J/m^2’,'lattice_constant_fcc ‘:’angstrom','relaxed_formation_potential_energy_unit_fcc': 'eV','vacancy_migration_energy_unit_fcc': 'eV'}"
Pd,169.9014,59.5413,47.5747,1.343,1.539,1.539,0.227,0.1458,3.9342,0.9624,0.8261,"{‘bulk_modulus_unit_fcc’:’GPa’, ‘elastic_const_unit_fcc’:’GPa’,’surface_energy_unit_fcc’:’J/m^2',’unstable_stack_energy_unit_fcc’:’J/m^2’,’intr_stack_fault_energy_unit_fcc’:’J/m^2’,'lattice_constant_fcc ‘:’angstrom','relaxed_formation_potential_energy_unit_fcc': 'eV','vacancy_migration_energy_unit_fcc': 'eV'}"
Pt,255.1226,60.4932,88.9141,1.484,1.661,1.855,0.32,0.3043,3.965,0.3939,1.3078,"{‘bulk_modulus_unit_fcc’:’GPa’, ‘elastic_const_unit_fcc’:’GPa’,’surface_energy_unit_fcc’:’J/m^2',’unstable_stack_energy_unit_fcc’:’J/m^2’,’intr_stack_fault_energy_unit_fcc’:’J/m^2’,'lattice_constant_fcc ‘:’angstrom','relaxed_formation_potential_energy_unit_fcc': 'eV','vacancy_migration_energy_unit_fcc': 'eV'}"